# vtk DataFile Version 2.0
Simplicial Mesh Example
ASCII
DATASET UNSTRUCTURED_GRID
POINTS 49 double
0.000000e+00 0.000000e+00 0.0
0.000000e+00 1.666667e-01 0.0
0.000000e+00 3.333333e-01 0.0
0.000000e+00 5.000000e-01 0.0
0.000000e+00 6.666667e-01 0.0
0.000000e+00 8.333333e-01 0.0
0.000000e+00 1.000000e+00 0.0
1.666667e-01 0.000000e+00 0.0
1.666667e-01 1.666667e-01 0.0
1.666667e-01 3.333333e-01 0.0
1.666667e-01 5.000000e-01 0.0
1.666667e-01 6.666667e-01 0.0
1.666667e-01 8.333333e-01 0.0
1.666667e-01 1.000000e+00 0.0
3.333333e-01 0.000000e+00 0.0
3.333333e-01 1.666667e-01 0.0
3.333333e-01 3.333333e-01 0.0
3.333333e-01 5.000000e-01 0.0
3.333333e-01 6.666667e-01 0.0
3.333333e-01 8.333333e-01 0.0
3.333333e-01 1.000000e+00 0.0
5.000000e-01 0.000000e+00 0.0
5.000000e-01 1.666667e-01 0.0
5.000000e-01 3.333333e-01 0.0
5.000000e-01 5.000000e-01 0.0
5.000000e-01 6.666667e-01 0.0
5.000000e-01 8.333333e-01 0.0
5.000000e-01 1.000000e+00 0.0
6.666667e-01 0.000000e+00 0.0
6.666667e-01 1.666667e-01 0.0
6.666667e-01 3.333333e-01 0.0
6.666667e-01 5.000000e-01 0.0
6.666667e-01 6.666667e-01 0.0
6.666667e-01 8.333333e-01 0.0
6.666667e-01 1.000000e+00 0.0
8.333333e-01 0.000000e+00 0.0
8.333333e-01 1.666667e-01 0.0
8.333333e-01 3.333333e-01 0.0
8.333333e-01 5.000000e-01 0.0
8.333333e-01 6.666667e-01 0.0
8.333333e-01 8.333333e-01 0.0
8.333333e-01 1.000000e+00 0.0
1.000000e+00 0.000000e+00 0.0
1.000000e+00 1.666667e-01 0.0
1.000000e+00 3.333333e-01 0.0
1.000000e+00 5.000000e-01 0.0
1.000000e+00 6.666667e-01 0.0
1.000000e+00 8.333333e-01 0.0
1.000000e+00 1.000000e+00 0.0
CELLS 36 180
4  0 1 8 7
4  1 2 9 8
4  2 3 10 9
4  3 4 11 10
4  4 5 12 11
4  5 6 13 12
4  7 8 15 14
4  8 9 16 15
4  9 10 17 16
4  10 11 18 17
4  11 12 19 18
4  12 13 20 19
4  14 15 22 21
4  15 16 23 22
4  16 17 24 23
4  17 18 25 24
4  18 19 26 25
4  19 20 27 26
4  21 22 29 28
4  22 23 30 29
4  23 24 31 30
4  24 25 32 31
4  25 26 33 32
4  26 27 34 33
4  28 29 36 35
4  29 30 37 36
4  30 31 38 37
4  31 32 39 38
4  32 33 40 39
4  33 34 41 40
4  35 36 43 42
4  36 37 44 43
4  37 38 45 44
4  38 39 46 45
4  39 40 47 46
4  40 41 48 47
CELL_TYPES 36
9
9
9
9
9
9
9
9
9
9
9
9
9
9
9
9
9
9
9
9
9
9
9
9
9
9
9
9
9
9
9
9
9
9
9
9
CELL_DATA 36
SCALARS potential double 1
LOOKUP_TABLE default
8.333333e-01
8.333333e-01
8.333333e-01
8.333333e-01
8.333333e-01
8.333333e-01
2.500000e+00
2.500000e+00
2.500000e+00
2.500000e+00
2.500000e+00
2.500000e+00
4.166667e+00
4.166667e+00
4.166667e+00
4.166667e+00
4.166667e+00
4.166667e+00
5.833333e+00
5.833333e+00
5.833333e+00
5.833333e+00
5.833333e+00
5.833333e+00
7.500000e+00
7.500000e+00
7.500000e+00
7.500000e+00
7.500000e+00
7.500000e+00
9.166667e+00
9.166667e+00
9.166667e+00
9.166667e+00
9.166667e+00
9.166667e+00
SCALARS Ex double 1
LOOKUP_TABLE default
1.000000e+01
1.000000e+01
1.000000e+01
1.000000e+01
1.000000e+01
1.000000e+01
1.000000e+01
1.000000e+01
1.000000e+01
1.000000e+01
1.000000e+01
1.000000e+01
1.000000e+01
1.000000e+01
1.000000e+01
1.000000e+01
1.000000e+01
1.000000e+01
1.000000e+01
1.000000e+01
1.000000e+01
1.000000e+01
1.000000e+01
1.000000e+01
1.000000e+01
1.000000e+01
1.000000e+01
1.000000e+01
1.000000e+01
1.000000e+01
1.000000e+01
1.000000e+01
1.000000e+01
1.000000e+01
1.000000e+01
1.000000e+01
SCALARS Ey double 1
LOOKUP_TABLE default
-4.326504e-10
3.137435e-09
-5.917532e-09
-1.539785e-08
-6.847934e-09
-1.240729e-09
1.715998e-10
-1.989104e-09
-9.889813e-09
-1.021920e-08
1.711277e-09
-4.000000e+00
4.000000e+00
5.293062e-09
-1.159376e-08
-1.972975e-08
-6.930185e-09
4.000000e+00
-8.000000e+00
-1.697062e-09
1.478721e-09
-2.533020e-10
3.039442e-09
-1.400000e+01
1.800000e+01
7.104466e-09
1.577079e-08
9.645135e-09
-3.275107e-09
-1.800000e+01
2.200000e+01
-1.513290e-09
1.190852e-08
1.145748e-08
-2.545132e-09
-2.200000e+01
